No title available
Freq      RHF                                                         3-21G               
IOpCl                                      I                0
IROHF                                      I                0
Number of atoms                            I                6
Charge                                     I                0
Multiplicity                               I                1
Number of electrons                        I               18
Number of alpha electrons                  I                9
Number of beta electrons                   I                9
Number of basis functions                  I               26
Number of independant functions            I               26
Number of point charges in /Mol/           I                0
Number of translation vectors              I                0
Number of residues                         I                0
Number of secondary structures             I                0
Number of symbols in /Mol/                 I                0
Info1-9                                    I   N=           9
           8           3           0           0           0         101
           6           1           2
Num ILSW                                   I              100
ILSW                                       I   N=         100
           0           1           0           0           2           0
           0           0           0           0           0          -1
           0           0           0           0           0           0
           0           0           0           0           1           0
           1           0           0           0           0           0
           0           0      100000           0          -1           0
           0           0           0           0           0           0
           0           0           0           1           0           0
           0           0           1           0           0           0
           0           0           0           0           0           0
           0           0           0           0           0           0
           0           0           0           0           0           0
           0           0           0           0           0           0
           0           0           0           0           0           0
           0           0           0           0           0           0
           0           0           0           0           0           0
           0           0           0           0
Number of contracted shells                I               14
Highest angular momentum                   I                1
Largest degree of contraction              I                3
Number of primitive shells                 I               24
Pure/Cartesian d shells                    I                1
Pure/Cartesian f shells                    I                0
Virial Ratio                               R      2.002722466767769E+00
SCF Energy                                 R     -1.143980192528696E+02
Total Energy                               R     -1.143980192528696E+02
RMS Force                                  R      7.456815422817997E-05
RMS Density                                R      3.597581878706235E-10
Atomic numbers                             I   N=           6
           8           1           6           1           1           1
Nuclear charges                            R   N=           6
  8.00000000E+00  1.00000000E+00  6.00000000E+00  1.00000000E+00  1.00000000E+00
  1.00000000E+00
Redundant internal dimensions              I   N=           4
          15           5           7           3
Redundant internal coordinate indices      I   N=          60
           1           2           0           0           1           3
           0           0           3           4           0           0
           3           5           0           0           3           6
           0           0           2           1           3           0
           1           3           4           0           1           3
           5           0           1           3           6           0
           4           3           5           0           4           3
           6           0           5           3           6           0
           2           1           3           4           2           1
           3           5           2           1           3           6
Redundant internal coordinates             R   N=          15
  1.82501081E+00  2.72241879E+00  2.03833811E+00  2.05063354E+00  2.05063354E+00
  1.92502019E+00  1.85447195E+00  1.95888348E+00  1.95888348E+00  1.89561677E+00
  1.89561677E+00  1.89815941E+00  3.14159265E+00 -1.07205755E+00  1.07205755E+00
ZRed-IntVec                                I   N=          15
           0           0           0           0           0           0
           0           0           0           0           0           0
           0           0           0
ZRed-FPVec                                 R   N=          15
  0.00000000E+00  0.00000000E+00  0.00000000E+00  0.00000000E+00  0.00000000E+00
  0.00000000E+00  0.00000000E+00  0.00000000E+00  0.00000000E+00  0.00000000E+00
  0.00000000E+00  0.00000000E+00  0.00000000E+00  0.00000000E+00  0.00000000E+00
ZRed-Constraint1                           R   N=          15
  1.82501081E+00  2.72241879E+00  2.03833811E+00  2.05063354E+00  2.05063354E+00
  1.92502019E+00  1.85447195E+00  1.95888348E+00  1.95888348E+00  1.89561677E+00
  1.89561677E+00  1.89815941E+00  3.14159265E+00 -1.07205755E+00  1.07205755E+00
ZRed-Constraint2                           R   N=          15
  1.81413709E+00  2.70230837E+00  2.05980149E+00  2.05980149E+00  2.05980149E+00
  1.91063324E+00  1.91063324E+00  1.91063324E+00  1.91063324E+00  1.91063324E+00
  1.91063324E+00  1.91063324E+00  3.14159265E+00 -1.04719755E+00  1.04719755E+00
Current cartesian coordinates              R   N=          18
 -8.72590225E-02 -1.44395775E+00 -1.97215226E-31  1.62444779E+00 -2.07698559E+00
  0.00000000E+00 -8.72590225E-02  1.27846104E+00  7.88860905E-31 -2.04413122E+00
  1.84896385E+00  2.36658272E-30  8.20654872E-01  2.05445874E+00  1.66691867E+00
  8.20654872E-01  2.05445874E+00 -1.66691867E+00
Atom Types                                 C   N=           6
                                                            
            
Int Atom Types                             I   N=           6
           0           0           0           0           0           0
Force Field                                I                0
MM charges                                 R   N=           6
  0.00000000E+00  0.00000000E+00  0.00000000E+00  0.00000000E+00  0.00000000E+00
  0.00000000E+00
Integer atomic weights                     I   N=           6
          16           1          12           1           1           1
Real atomic weights                        R   N=           6
  1.59949146E+01  1.00782504E+00  1.20000000E+01  1.00782504E+00  1.00782504E+00
  1.00782504E+00
Atom fragment info                         I   N=           6
           0           0           0           0           0           0
Atom residue num                           I   N=           6
           0           0           0           0           0           0
Nuclear spins                              I   N=           6
           0           1           0           1           1           1
Nuclear ZEff                               R   N=           6
 -5.60000000E+00 -1.00000000E+00 -3.60000000E+00 -1.00000000E+00 -1.00000000E+00
 -1.00000000E+00
Nuclear QMom                               R   N=           6
  0.00000000E+00  0.00000000E+00  0.00000000E+00  0.00000000E+00  0.00000000E+00
  0.00000000E+00
Nuclear GFac                               R   N=           6
  0.00000000E+00  2.79284600E+00  0.00000000E+00  2.79284600E+00  2.79284600E+00
  2.79284600E+00
MicOpt                                     I   N=           6
          -1          -1          -1          -1          -1          -1
Constraint Structure                       R   N=          18
 -8.72590225E-02 -1.44395775E+00 -3.94430453E-31  1.62444779E+00 -2.07698559E+00
  0.00000000E+00 -8.72590225E-02  1.27846104E+00  5.91645679E-31 -2.04413122E+00
  1.84896385E+00  7.88860905E-31  8.20654872E-01  2.05445874E+00  1.66691867E+00
  8.20654872E-01  2.05445874E+00 -1.66691867E+00
ONIOM Charges                              I   N=          16
           0           0           0           0           0           0
           0           0           0           0           0           0
           0           0           0           0
ONIOM Multiplicities                       I   N=          16
           1           0           0           0           0           0
           0           0           0           0           0           0
           0           0           0           0
Atom Layers                                I   N=           6
           0           0           0           0           0           0
Atom Modifiers                             I   N=           6
           0           0           0           0           0           0
Atom Modified Types                        C   N=           6
                                                            
            
Int Atom Modified Types                    I   N=           6
           0           0           0           0           0           0
Link Atoms                                 I   N=           6
           0           0           0           0           0           0
Atom Modified MM Charges                   R   N=           6
  0.00000000E+00  0.00000000E+00  0.00000000E+00  0.00000000E+00  0.00000000E+00
  0.00000000E+00
Link Distances                             R   N=          24
  0.00000000E+00  0.00000000E+00  0.00000000E+00  0.00000000E+00  0.00000000E+00
  0.00000000E+00  0.00000000E+00  0.00000000E+00  0.00000000E+00  0.00000000E+00
  0.00000000E+00  0.00000000E+00  0.00000000E+00  0.00000000E+00  0.00000000E+00
  0.00000000E+00  0.00000000E+00  0.00000000E+00  0.00000000E+00  0.00000000E+00
  0.00000000E+00  0.00000000E+00  0.00000000E+00  0.00000000E+00
MxBond                                     I                4
NBond                                      I   N=           6
           2           1           4           1           1           1
IBond                                      I   N=          24
           2           3           0           0           1           0
           0           0           1           4           5           6
           3           0           0           0           3           0
           0           0           3           0           0           0
RBond                                      R   N=          24
  1.00000000E+00  1.00000000E+00  0.00000000E+00  0.00000000E+00  1.00000000E+00
  0.00000000E+00  0.00000000E+00  0.00000000E+00  1.00000000E+00  1.00000000E+00
  1.00000000E+00  1.00000000E+00  1.00000000E+00  0.00000000E+00  0.00000000E+00
  0.00000000E+00  1.00000000E+00  0.00000000E+00  0.00000000E+00  0.00000000E+00
  1.00000000E+00  0.00000000E+00  0.00000000E+00  0.00000000E+00
Shell types                                I   N=          14
           0          -1          -1           0           0           0
          -1          -1           0           0           0           0
           0           0
Number of primitives per shell             I   N=          14
           3           2           1           2           1           3
           2           1           2           1           2           1
           2           1
Shell to atom map                          I   N=          14
           1           1           1           2           2           3
           3           3           4           4           5           5
           6           6
Primitive exponents                        R   N=          24
  3.22037000E+02  4.84308000E+01  1.04206000E+01  7.40294000E+00  1.57620000E+00
  3.73684000E-01  5.44717800E+00  8.24547240E-01  1.83191580E-01  1.72256000E+02
  2.59109000E+01  5.53335000E+00  3.66498000E+00  7.70545000E-01  1.95857000E-01
  5.44717800E+00  8.24547240E-01  1.83191580E-01  5.44717800E+00  8.24547240E-01
  1.83191580E-01  5.44717800E+00  8.24547240E-01  1.83191580E-01
Contraction coefficients                   R   N=          24
  5.92393934E-02  3.51499961E-01  7.07657921E-01 -4.04453583E-01  1.22156176E+00
  1.00000000E+00  1.56284979E-01  9.04690877E-01  1.00000000E+00  6.17669074E-02
  3.58794043E-01  7.00713084E-01 -3.95895162E-01  1.21583436E+00  1.00000000E+00
  1.56284979E-01  9.04690877E-01  1.00000000E+00  1.56284979E-01  9.04690877E-01
  1.00000000E+00  1.56284979E-01  9.04690877E-01  1.00000000E+00
P(S=P) Contraction coefficients            R   N=          24
  0.00000000E+00  0.00000000E+00  0.00000000E+00  2.44586107E-01  8.53955373E-01
  1.00000000E+00  0.00000000E+00  0.00000000E+00  0.00000000E+00  0.00000000E+00
  0.00000000E+00  0.00000000E+00  2.36459947E-01  8.60618806E-01  1.00000000E+00
  0.00000000E+00  0.00000000E+00  0.00000000E+00  0.00000000E+00  0.00000000E+00
  0.00000000E+00  0.00000000E+00  0.00000000E+00  0.00000000E+00
Coordinates of each shell                  R   N=          42
 -8.72590225E-02 -1.44395775E+00 -3.94430453E-31 -8.72590225E-02 -1.44395775E+00
 -3.94430453E-31 -8.72590225E-02 -1.44395775E+00 -3.94430453E-31  1.62444779E+00
 -2.07698559E+00  0.00000000E+00  1.62444779E+00 -2.07698559E+00  0.00000000E+00
 -8.72590225E-02  1.27846104E+00  5.91645679E-31 -8.72590225E-02  1.27846104E+00
  5.91645679E-31 -8.72590225E-02  1.27846104E+00  5.91645679E-31 -2.04413122E+00
  1.84896385E+00  7.88860905E-31 -2.04413122E+00  1.84896385E+00  7.88860905E-31
  8.20654872E-01  2.05445874E+00  1.66691867E+00  8.20654872E-01  2.05445874E+00
  1.66691867E+00  8.20654872E-01  2.05445874E+00 -1.66691867E+00  8.20654872E-01
  2.05445874E+00 -1.66691867E+00
Alpha Orbital Energies                     R   N=          26
 -2.04353931E+01 -1.12116323E+01 -1.33469060E+00 -9.27066315E-01 -6.69296540E-01
 -6.13946449E-01 -5.77046249E-01 -4.80880676E-01 -4.34523159E-01  2.66093709E-01
  3.15806677E-01  3.45148826E-01  3.55435578E-01  4.24584765E-01  9.41940969E-01
  9.62351660E-01  9.67765669E-01  1.24780000E+00  1.31467281E+00  1.31965690E+00
  1.35760424E+00  1.88613783E+00  1.88981283E+00  1.97186975E+00  2.14731992E+00
  3.32636214E+00
Alpha MO coefficients                      R   N=         676
  9.83394049E-01  9.72405840E-02  2.62357802E-03  2.57519283E-03  0.00000000E+00
 -4.22272668E-02 -4.66886995E-03 -7.05888749E-03  0.00000000E+00  2.75105444E-03
  5.64599091E-03 -6.74301631E-04 -2.39452066E-03  3.10715469E-04 -2.03180926E-03
  0.00000000E+00  1.54555908E-02 -5.65503829E-04 -7.32709825E-03  0.00000000E+00
 -1.36500613E-03 -1.77603227E-03 -1.17532445E-03 -1.15621550E-03 -1.17532445E-03
 -1.15621550E-03 -1.03815989E-04  1.39003958E-04  2.07194875E-04  6.40691363E-04
  0.00000000E+00  5.35308944E-03 -7.92286721E-04  1.45268879E-03  0.00000000E+00
 -3.44817284E-04  2.54472807E-03  9.87097987E-01  9.81584109E-02  6.73857691E-05
  2.93867556E-04  0.00000000E+00 -6.68756382E-02  5.79668122E-04 -4.33838542E-03
  0.00000000E+00 -7.08744580E-04  1.50886826E-02 -7.09858253E-04  1.47132144E-02
 -7.09858253E-04  1.47132144E-02 -2.22968507E-01  2.07684042E-01  6.01604573E-02
  4.14085633E-02  0.00000000E+00  6.94279303E-01  6.89565650E-02  6.31313326E-02
  0.00000000E+00  1.08852250E-01  1.79739091E-02 -7.27894192E-02  7.85488944E-02
  4.14323943E-03 -7.24233303E-02  0.00000000E+00  1.24164869E-01  3.59902203E-03
  2.93408007E-03  0.00000000E+00  2.32193790E-02 -9.60682132E-04  2.28962026E-02
 -4.66666724E-03  2.28962026E-02 -4.66666724E-03  6.59668706E-02 -6.04227330E-02
 -6.16589938E-02  1.22519117E-01  0.00000000E+00 -2.59832753E-01 -5.34868730E-02
  9.09050812E-02  0.00000000E+00 -9.39940890E-02 -5.71134247E-02 -1.92965735E-01
  1.94439646E-01 -1.20234043E-02  6.53528085E-02  0.00000000E+00  5.76716004E-01
  5.49724290E-03  5.85012727E-02  0.00000000E+00  1.34545930E-01  2.57745549E-02
  1.28776857E-01  1.96008650E-02  1.28776857E-01  1.96008650E-02  4.33844256E-02
 -3.82913844E-02  2.89528599E-01 -1.54695706E-01  0.00000000E+00 -1.89234865E-01
  2.80014812E-01 -1.51879785E-01  0.00000000E+00  2.00753715E-01  1.44554316E-01
 -1.56288236E-02  1.39946270E-02  1.93927689E-01  1.70097295E-01  0.00000000E+00
  5.94504696E-02  1.66136618E-01  1.10332354E-01  0.00000000E+00 -6.98964627E-02
 -4.43852848E-02  1.07201535E-01  7.36809798E-02  1.07201535E-01  7.36809798E-02
  0.00000000E+00  0.00000000E+00  0.00000000E+00  0.00000000E+00  2.49464322E-01
  0.00000000E+00  0.00000000E+00  0.00000000E+00  2.59739705E-01  0.00000000E+00
  0.00000000E+00  0.00000000E+00  0.00000000E+00  0.00000000E+00  0.00000000E+00
  3.36306372E-01  0.00000000E+00  0.00000000E+00  0.00000000E+00  2.78813878E-01
  0.00000000E+00  0.00000000E+00  1.81871812E-01  1.50579130E-01 -1.81871812E-01
 -1.50579130E-01  2.01132348E-02 -2.67956286E-02  3.05683325E-02  2.92503558E-01
  0.00000000E+00 -7.11807974E-02  3.91919354E-02  3.25696021E-01  0.00000000E+00
 -8.38305866E-02 -9.34197166E-02 -3.37273742E-03  4.37233320E-03  2.60898101E-01
 -2.19946259E-01  0.00000000E+00 -1.13911352E-02  2.41721171E-01 -1.51585190E-01
  0.00000000E+00 -2.16990248E-01 -1.69762361E-01  2.56445445E-02  1.68084781E-02
  2.56445445E-02  1.68084781E-02  6.49185833E-02 -6.29265860E-02  3.17559996E-01
  1.99116444E-01  0.00000000E+00 -2.98036925E-01  3.73795762E-01  2.54311368E-01
  0.00000000E+00  1.27450476E-01  1.10051788E-01 -1.30672237E-02  1.95604191E-02
 -2.20199351E-01 -1.28673995E-01  0.00000000E+00  1.94610346E-02 -1.20207076E-01
 -6.21749628E-02  0.00000000E+00  1.59716060E-01  1.72143116E-01 -1.07010275E-01
 -1.34777737E-01 -1.07010275E-01 -1.34777737E-01  0.00000000E+00  0.00000000E+00
  0.00000000E+00  0.00000000E+00  4.58928719E-01  0.00000000E+00  0.00000000E+00
  0.00000000E+00  5.64254852E-01  0.00000000E+00  0.00000000E+00  0.00000000E+00
  0.00000000E+00  0.00000000E+00  0.00000000E+00 -1.93910932E-01  0.00000000E+00
  0.00000000E+00  0.00000000E+00 -7.32256079E-02  0.00000000E+00  0.00000000E+00
 -1.52927844E-01 -2.01179788E-01  1.52927844E-01  2.01179788E-01 -8.67494832E-02
  3.08283809E-02  1.59753195E-01  8.99638962E-03  0.00000000E+00  8.12401509E-01
  3.68942414E-01  1.09205802E-02  0.00000000E+00 -4.68923800E-02 -9.32526898E-01
 -6.63622496E-02  3.17782047E-03  2.87597705E-02  1.74678390E-01  0.00000000E+00
  1.14628880E+00  9.43816383E-02  6.63556455E-01  0.00000000E+00 -3.72775971E-03
 -4.64362054E-01 -7.42345449E-03 -7.14409471E-01 -7.42345449E-03 -7.14409471E-01
  6.90665885E-02 -2.32496966E-02 -1.32344253E-01 -5.21548037E-02  0.00000000E+00
 -6.54542112E-01 -2.97807656E-01 -1.16968791E-01  0.00000000E+00  5.03778940E-02
  7.41340215E-01 -1.54427890E-01  6.20008562E-02 -1.74880813E-02  2.57222246E-02
  0.00000000E+00  2.00581434E+00 -1.15059850E-01  2.28404483E-01  0.00000000E+00
 -4.46780624E-03 -1.05165935E+00  4.28016198E-03 -8.90052881E-01  4.28016198E-03
 -8.90052881E-01  1.32718442E-02 -3.86414639E-03 -4.43738598E-02 -8.80159569E-02
  0.00000000E+00 -1.28508240E-01 -1.41978929E-01 -1.95144083E-01  0.00000000E+00
 -3.01363359E-02 -1.05321546E-01 -1.86321116E-02  6.39430279E-03  2.98561996E-01
 -3.79828942E-02  0.00000000E+00  1.32157971E-01  1.39287271E+00 -2.05105406E-01
  0.00000000E+00  7.27098725E-02  1.69507890E+00 -2.60761957E-02 -8.11471002E-01
 -2.60761957E-02 -8.11471002E-01  0.00000000E+00  0.00000000E+00  0.00000000E+00
  0.00000000E+00  8.30788166E-02  0.00000000E+00  0.00000000E+00  0.00000000E+00
  2.22017729E-01  0.00000000E+00  0.00000000E+00  0.00000000E+00  0.00000000E+00
  0.00000000E+00  0.00000000E+00 -3.30211495E-01  0.00000000E+00  0.00000000E+00
  0.00000000E+00 -1.41261789E+00  0.00000000E+00  0.00000000E+00  3.66007750E-02
  1.49172330E+00 -3.66007750E-02 -1.49172330E+00 -4.83135552E-02  1.59761160E-02
 -1.23868104E-01  2.89202417E-01  0.00000000E+00  4.70560249E-01 -3.38908903E-01
  8.17174478E-01  0.00000000E+00  1.25446829E-02  8.16055700E-01  8.07989309E-02
 -4.87356611E-02  4.77136693E-02  2.09232533E-01  0.00000000E+00 -6.89015177E-01
  3.05257722E-01  1.19229814E+00  0.00000000E+00 -5.58035323E-02  3.92641806E-01
 -5.88899741E-02 -2.31287795E-01 -5.88899741E-02 -2.31287795E-01 -1.90804518E-02
  8.00191895E-03 -3.98463759E-02 -1.06287658E-01  0.00000000E+00  2.26892043E-01
 -7.56865915E-02  5.40810801E-04  0.00000000E+00 -2.59640904E-01  2.22310751E-02
 -8.85994402E-03  2.70227726E-02 -6.87121560E-01 -2.52963911E-01  0.00000000E+00
  2.11520597E-02  1.30763771E+00  3.70695910E-01  0.00000000E+00  5.47983236E-01
  6.54987016E-02 -3.46101295E-01 -6.11099769E-02 -3.46101295E-01 -6.11099769E-02
  0.00000000E+00  0.00000000E+00  0.00000000E+00  0.00000000E+00 -1.57512298E-01
  0.00000000E+00  0.00000000E+00  0.00000000E+00 -1.81988177E-01  0.00000000E+00
  0.00000000E+00  0.00000000E+00  0.00000000E+00  0.00000000E+00  0.00000000E+00
 -7.31228328E-01  0.00000000E+00  0.00000000E+00  0.00000000E+00  1.46547813E+00
  0.00000000E+00  0.00000000E+00 -5.33976443E-01 -1.38134589E-01  5.33976443E-01
  1.38134589E-01  2.02050214E-02 -9.45306202E-02 -1.77208974E-02 -2.10891582E-01
  0.00000000E+00  3.43041533E-01  1.64986050E-02  6.75953181E-02  0.00000000E+00
  2.44845609E-02  1.80702134E-01 -4.84016410E-02  1.64872015E-01  2.36270106E-01
 -1.00943957E+00  0.00000000E+00  1.58211788E-01 -4.15539874E-01  1.17085527E+00
  0.00000000E+00 -2.94371083E-01 -1.50686266E-01 -9.73262024E-02 -8.56434735E-02
 -9.73262024E-02 -8.56434735E-02  2.15044195E-02 -9.67859403E-03 -2.09492690E-01
  2.04122044E-02  0.00000000E+00  4.89590200E-02 -3.26980011E-01  1.39477881E-01
  0.00000000E+00  1.01805538E+00 -6.37015939E-01  3.78118831E-02  1.28019561E-02
 -5.37836850E-01 -2.05362598E-01  0.00000000E+00 -1.68779059E-01  9.69652500E-01
  6.73223472E-02  0.00000000E+00 -4.20378573E-03  6.95478560E-01  4.67220325E-01
 -5.07026745E-01  4.67220325E-01 -5.07026745E-01 -2.75203537E-02  7.58832212E-02
 -1.36317613E-02  1.24336675E-01  0.00000000E+00  9.23814984E-02  1.08796118E-01
  6.77728053E-03  0.00000000E+00 -3.01630668E-01  3.37806923E-01  9.68249433E-02
 -1.09719312E-01  4.20873208E-01 -3.16263621E-01  0.00000000E+00 -8.04453362E-02
 -5.61107335E-01  2.37465599E-01  0.00000000E+00  9.97049657E-01 -9.82904237E-01
  4.72580800E-01 -7.79881572E-02  4.72580800E-01 -7.79881572E-02  0.00000000E+00
  0.00000000E+00  0.00000000E+00  0.00000000E+00 -7.95381314E-02  0.00000000E+00
  0.00000000E+00  0.00000000E+00  1.33695674E-01  0.00000000E+00  0.00000000E+00
  0.00000000E+00  0.00000000E+00  0.00000000E+00  0.00000000E+00  8.63951484E-01
  0.00000000E+00  0.00000000E+00  0.00000000E+00 -1.06987602E+00  0.00000000E+00
  0.00000000E+00 -7.50811450E-01  1.19548587E+00  7.50811450E-01 -1.19548587E+00
  2.69628309E-02 -5.30431866E-02 -2.74980507E-01 -2.74056734E-02  0.00000000E+00
 -2.26371655E-02 -6.84341885E-02  9.05488819E-02  0.00000000E+00  8.13527005E-01
 -5.78311661E-01 -2.80296140E-02  7.33198447E-02  5.51141460E-01  1.37647459E-01
  0.00000000E+00 -8.81957806E-02 -4.68686990E-01 -1.83517846E-01  0.00000000E+00
  5.70537386E-01 -8.02160138E-01 -5.34587134E-01  6.30587830E-01 -5.34587134E-01
  6.30587830E-01  0.00000000E+00  0.00000000E+00  0.00000000E+00  0.00000000E+00
 -1.02368183E+00  0.00000000E+00  0.00000000E+00  0.00000000E+00  1.09620578E+00
  0.00000000E+00  0.00000000E+00  0.00000000E+00  0.00000000E+00  0.00000000E+00
  0.00000000E+00  4.48750522E-02  0.00000000E+00  0.00000000E+00  0.00000000E+00
 -5.41227445E-01  0.00000000E+00  0.00000000E+00  1.66610777E-01  1.13877499E-01
 -1.66610777E-01 -1.13877499E-01  4.98269486E-02 -1.56544411E-01  2.68579566E-01
  1.38089533E-01  0.00000000E+00 -3.41056142E-01 -3.25666034E-01 -4.45736213E-01
  0.00000000E+00  2.15343362E-01 -2.42467075E-01 -2.37081350E-02 -1.84580320E+00
 -3.50656432E-03 -1.68308617E-01  0.00000000E+00  3.67840950E+00  1.16100441E-01
  2.67576796E-01  0.00000000E+00 -7.69354006E-02 -8.16069867E-01 -1.77067227E-01
 -8.14133177E-01 -1.77067227E-01 -8.14133177E-01 -3.10554467E-02  1.43128026E-01
 -7.53264183E-01 -5.75556942E-01  0.00000000E+00 -7.18079712E-02  9.71909259E-01
  5.15872719E-01  0.00000000E+00 -3.23776155E-01  1.77410774E-03  6.73795545E-03
 -6.96544918E-01  1.26658684E-02  1.20806333E-01  0.00000000E+00  9.53657100E-01
 -4.24170843E-01  7.48145189E-02  0.00000000E+00 -1.62370198E-01 -3.24033455E-01
  8.53811069E-02 -2.14141846E-01  8.53811069E-02 -2.14141846E-01 -2.00835495E-02
  1.75544828E-01  6.25382048E-01 -8.45641676E-01  0.00000000E+00 -1.07830523E-01
 -9.46611249E-01  1.26276579E+00  0.00000000E+00  2.56664178E-01  5.35882199E-01
  3.15099064E-02  6.73855847E-02  5.91560093E-02  1.65633793E-01  0.00000000E+00
 -7.78656699E-01  1.66062273E-01  3.01091787E-01  0.00000000E+00  2.33984339E-01
  4.62107897E-03  7.54270568E-02  1.33897159E-02  7.54270568E-02  1.33897159E-02
  7.05150137E-02 -1.66780689E+00 -7.61461360E-02 -2.27353941E-01  0.00000000E+00
  2.21756840E+00  2.72125018E-01  6.18133278E-01  0.00000000E+00 -2.78554649E-01
 -1.81556831E-01  6.23462870E-02  2.99891352E-01 -2.06425874E-02  2.03507349E-01
  0.00000000E+00 -1.37645865E+00  1.59999206E-02  4.14345199E-01  0.00000000E+00
  1.45553379E-01  1.68709779E-01  1.43225702E-01  1.36281017E-01  1.43225702E-01
  1.36281017E-01
Total SCF Density                          R   N=         351
  2.05526325E+00  7.80951929E-02  1.24766619E-01  3.77801126E-02 -3.08267920E-02
  3.86067244E-01  2.69598517E-02 -2.59931236E-02  4.46551475E-02  3.31738193E-01
  2.23524404E-32 -1.82385383E-32  2.28415017E-31  2.64200251E-32  5.45696034E-01
 -4.84918058E-01  3.67385845E-01 -1.87859758E-01 -1.08163106E-01 -1.11146414E-31
  1.36210231E+00  2.74161781E-02 -3.63902622E-02  4.16813802E-01  7.77305431E-02
  2.46606085E-31 -2.10435096E-01  4.54611709E-01  2.89944600E-03 -2.39641201E-02
  8.98324701E-02  3.66269024E-01  5.31489928E-32 -9.94400317E-02  1.29638953E-01
  4.12241753E-01  1.62206633E-32 -2.15301414E-32  2.46606085E-31  4.59889399E-32
  6.47497091E-01 -1.24503015E-31  2.68969053E-31  7.67003266E-32  7.71696504E-01
 -2.49366571E-02  3.01857069E-02  2.16771763E-01 -7.44015816E-02  1.28252077E-31
  5.97423395E-02  2.26179870E-01 -5.41481755E-02  1.33818343E-31  1.68529267E-01
  1.86271991E-02 -4.44782341E-03  1.57126368E-01 -6.80229069E-02  9.29631368E-32
 -5.28209286E-02  1.64437607E-01 -5.69744583E-02  9.72887995E-32  1.16433757E-01
  9.07158950E-02  2.28126377E-03 -3.74988598E-03 -2.11187394E-03 -5.43922660E-02
 -1.24948109E-33  2.40144725E-02 -9.74009997E-03 -4.54921623E-02 -5.76268806E-33
  1.07037864E-02  1.76770147E-02  2.03464670E+00 -1.01747545E-02  4.92334689E-03
  6.29549295E-03  6.02814178E-02  3.72470120E-33 -8.29915337E-03  1.27031364E-02
  5.41338639E-02  7.51575575E-33 -9.66092967E-03 -1.13796713E-02  1.06333600E-01
  1.08430178E-01 -4.09098644E-03  2.11380047E-03 -9.62446657E-03  2.33568463E-03
 -5.69427406E-33  3.26932039E-02 -3.37091264E-02 -2.62587245E-03 -1.99438590E-32
 -1.88441748E-02 -3.96203612E-02  2.10283925E-03 -4.91804319E-03  3.08650703E-01
  2.61271034E-02 -2.34202924E-02 -1.34579019E-02 -2.22533029E-01 -7.96230948E-33
 -9.07164707E-02 -3.51369590E-02 -2.57619463E-01 -2.07886300E-32  4.43088295E-02
  5.18596706E-02 -1.45658844E-02  1.19079356E-02  5.70100471E-03  2.06773573E-01
 -2.42041445E-33  1.25062091E-33 -5.69427406E-33  1.38189772E-33 -1.01897097E-02
  1.93427928E-32 -1.99438590E-32 -1.55358609E-33 -4.41261336E-02 -1.11490746E-32
 -2.34412155E-32  1.24413576E-33 -2.90973900E-33  1.82611855E-31  3.37297480E-33
  3.01406851E-01  5.83573360E-02 -2.15238104E-02 -1.00375427E-02  1.34287022E-01
 -5.93866878E-33 -1.61789251E-01  2.34219079E-03  1.04537301E-01  1.38574706E-33
 -5.05130895E-02 -3.79794319E-02 -3.74985138E-01  2.32901802E-01 -4.29497915E-03
  7.75203889E-02 -2.54110586E-33  7.13544677E-01  6.53971484E-03 -9.82811856E-03
  3.43871157E-02  4.37798767E-02  2.03449884E-32 -2.34425071E-02  2.20353318E-02
  4.73131521E-02  1.30371088E-32 -4.71647114E-03 -2.40915145E-02 -5.18237774E-03
  4.88087861E-03  2.43402568E-01 -1.86776535E-02  1.44008078E-31  1.67075631E-02
  2.01048139E-01 -1.25970184E-02  2.21920951E-04  8.23129680E-03 -1.33039669E-01
  4.87001119E-33 -8.87126959E-03 -2.35208142E-03 -1.52782067E-01 -1.39159881E-33
  4.34696457E-02  3.98534356E-02 -3.23608712E-02  2.17244844E-02 -1.03094003E-02
  1.27464941E-01 -6.09951213E-33  8.27117322E-02 -2.10069016E-02  8.50410799E-02
  3.86919403E-33 -5.81476388E-33  2.03449884E-32  2.59021749E-32  7.18975610E-02
 -1.38696580E-32  1.30371088E-32  2.79926220E-32  6.22022594E-02 -2.79047977E-33
 -1.42536404E-32 -3.06613140E-33  2.88775074E-33  1.44008078E-31 -1.10505530E-32
  2.15932259E-01  9.88495752E-33  1.18949263E-31 -1.24286425E-32  1.66198336E-01
  1.06557300E-02 -9.99946958E-03  3.38931402E-02 -6.82736519E-03  2.00527299E-32
 -7.54275107E-02  5.20729916E-02 -1.14680123E-02  3.08087605E-32  2.87835637E-02
  4.09356478E-02 -5.72287082E-02  5.82316064E-02 -2.13717089E-01  4.47991706E-02
 -1.26444792E-31  1.63857501E-01 -1.64877879E-01  4.64052772E-02 -9.75492845E-32
  1.92247231E-01  1.20030989E-02 -1.30228157E-02  6.99540883E-02 -1.07803355E-02
  4.13880340E-32 -7.60604571E-02  8.76320128E-02 -4.90980389E-03  5.18471017E-32
  4.94463453E-02  5.38535075E-02  1.80166969E-02  1.68504941E-02 -1.82234858E-01
  1.88009898E-02 -1.07818466E-31  3.27078871E-02 -1.37908032E-01  2.31718264E-02
 -8.15926914E-32  1.41740914E-01  1.22637277E-01  9.07714136E-04 -2.39705452E-03
 -1.74527946E-02 -2.73355156E-02 -4.96249029E-02 -1.54738175E-02 -2.85597767E-02
 -4.39682913E-02 -7.81018949E-02 -7.76430025E-03 -1.12554579E-02 -5.51592565E-02
  5.25802796E-02  9.91793342E-02  6.62471970E-02  1.81638060E-01  1.62276831E-01